+ 2 /NodeList/0/DeviceList/1/$ns3::PointToPointNetDevice/TxQueue/Enqueue ns3::PppHeader (Point-to-Point Protocol: IP (0x0021)) ns3::Ipv4Header (tos 0x0 DSCP Default ECN Not-ECT ttl 64 id 0 protocol 17 offset (bytes) 0 flags [none] length: 78 10.1.1.1 > 10.1.1.2) ns3::UdpHeader (length: 58 49153 > 9) ns3::SeqTsHeader ((seq=0 time=2)) Payload (size=38)
- 2 /NodeList/0/DeviceList/1/$ns3::PointToPointNetDevice/TxQueue/Dequeue ns3::PppHeader (Point-to-Point Protocol: IP (0x0021)) ns3::Ipv4Header (tos 0x0 DSCP Default ECN Not-ECT ttl 64 id 0 protocol 17 offset (bytes) 0 flags [none] length: 78 10.1.1.1 > 10.1.1.2) ns3::UdpHeader (length: 58 49153 > 9) ns3::SeqTsHeader ((seq=0 time=2)) Payload (size=38)
+ 2 /NodeList/1/DeviceList/1/$ns3::PointToPointNetDevice/TxQueue/Enqueue ns3::PppHeader (Point-to-Point Protocol: IP (0x0021)) ns3::Ipv4Header (tos 0x0 DSCP Default ECN Not-ECT ttl 64 id 0 protocol 17 offset (bytes) 0 flags [none] length: 78 10.1.2.1 > 10.1.2.2) ns3::UdpHeader (length: 58 49153 > 9) ns3::SeqTsHeader ((seq=0 time=2)) Payload (size=38)
- 2 /NodeList/1/DeviceList/1/$ns3::PointToPointNetDevice/TxQueue/Dequeue ns3::PppHeader (Point-to-Point Protocol: IP (0x0021)) ns3::Ipv4Header (tos 0x0 DSCP Default ECN Not-ECT ttl 64 id 0 protocol 17 offset (bytes) 0 flags [none] length: 78 10.1.2.1 > 10.1.2.2) ns3::UdpHeader (length: 58 49153 > 9) ns3::SeqTsHeader ((seq=0 time=2)) Payload (size=38)
+ 2 /NodeList/2/DeviceList/1/$ns3::PointToPointNetDevice/TxQueue/Enqueue ns3::PppHeader (Point-to-Point Protocol: IP (0x0021)) ns3::Ipv4Header (tos 0x0 DSCP Default ECN Not-ECT ttl 64 id 0 protocol 17 offset (bytes) 0 flags [none] length: 78 10.1.3.1 > 10.1.3.2) ns3::UdpHeader (length: 58 49153 > 9) ns3::SeqTsHeader ((seq=0 time=2)) Payload (size=38)
- 2 /NodeList/2/DeviceList/1/$ns3::PointToPointNetDevice/TxQueue/Dequeue ns3::PppHeader (Point-to-Point Protocol: IP (0x0021)) ns3::Ipv4Header (tos 0x0 DSCP Default ECN Not-ECT ttl 64 id 0 protocol 17 offset (bytes) 0 flags [none] length: 78 10.1.3.1 > 10.1.3.2) ns3::UdpHeader (length: 58 49153 > 9) ns3::SeqTsHeader ((seq=0 time=2)) Payload (size=38)
+ 2 /NodeList/3/DeviceList/1/$ns3::PointToPointNetDevice/TxQueue/Enqueue ns3::PppHeader (Point-to-Point Protocol: IP (0x0021)) ns3::Ipv4Header (tos 0x0 DSCP Default ECN Not-ECT ttl 64 id 0 protocol 17 offset (bytes) 0 flags [none] length: 78 10.1.4.1 > 10.1.4.2) ns3::UdpHeader (length: 58 49153 > 9) ns3::SeqTsHeader ((seq=0 time=2)) Payload (size=38)
- 2 /NodeList/3/DeviceList/1/$ns3::PointToPointNetDevice/TxQueue/Dequeue ns3::PppHeader (Point-to-Point Protocol: IP (0x0021)) ns3::Ipv4Header (tos 0x0 DSCP Default ECN Not-ECT ttl 64 id 0 protocol 17 offset (bytes) 0 flags [none] length: 78 10.1.4.1 > 10.1.4.2) ns3::UdpHeader (length: 58 49153 > 9) ns3::SeqTsHeader ((seq=0 time=2)) Payload (size=38)
r 2.02256 /NodeList/4/DeviceList/1/$ns3::PointToPointNetDevice/MacRx ns3::PppHeader (Point-to-Point Protocol: IP (0x0021)) ns3::Ipv4Header (tos 0x0 DSCP Default ECN Not-ECT ttl 64 id 0 protocol 17 offset (bytes) 0 flags [none] length: 78 10.1.1.1 > 10.1.1.2) ns3::UdpHeader (length: 58 49153 > 9) ns3::SeqTsHeader ((seq=0 time=2)) Payload (size=38)
+ 2.02256 /NodeList/4/DeviceList/6/$ns3::PointToPointNetDevice/TxQueue/Enqueue ns3::PppHeader (Point-to-Point Protocol: IP (0x0021)) ns3::Ipv4Header (tos 0x0 DSCP Default ECN Not-ECT ttl 64 id 0 protocol 17 offset (bytes) 0 flags [none] length: 78 10.1.7.1 > 10.1.7.2) ns3::UdpHeader (length: 58 49153 > 9) Payload (size=50)
- 2.02256 /NodeList/4/DeviceList/6/$ns3::PointToPointNetDevice/TxQueue/Dequeue ns3::PppHeader (Point-to-Point Protocol: IP (0x0021)) ns3::Ipv4Header (tos 0x0 DSCP Default ECN Not-ECT ttl 64 id 0 protocol 17 offset (bytes) 0 flags [none] length: 78 10.1.7.1 > 10.1.7.2) ns3::UdpHeader (length: 58 49153 > 9) Payload (size=50)
r 2.02256 /NodeList/4/DeviceList/2/$ns3::PointToPointNetDevice/MacRx ns3::PppHeader (Point-to-Point Protocol: IP (0x0021)) ns3::Ipv4Header (tos 0x0 DSCP Default ECN Not-ECT ttl 64 id 0 protocol 17 offset (bytes) 0 flags [none] length: 78 10.1.2.1 > 10.1.2.2) ns3::UdpHeader (length: 58 49153 > 9) ns3::SeqTsHeader ((seq=0 time=2)) Payload (size=38)
+ 2.02256 /NodeList/4/DeviceList/6/$ns3::PointToPointNetDevice/TxQueue/Enqueue ns3::PppHeader (Point-to-Point Protocol: IP (0x0021)) ns3::Ipv4Header (tos 0x0 DSCP Default ECN Not-ECT ttl 64 id 1 protocol 17 offset (bytes) 0 flags [none] length: 78 10.1.7.1 > 10.1.7.2) ns3::UdpHeader (length: 58 49153 > 9) Payload (size=50)
r 2.02256 /NodeList/4/DeviceList/3/$ns3::PointToPointNetDevice/MacRx ns3::PppHeader (Point-to-Point Protocol: IP (0x0021)) ns3::Ipv4Header (tos 0x0 DSCP Default ECN Not-ECT ttl 64 id 0 protocol 17 offset (bytes) 0 flags [none] length: 78 10.1.3.1 > 10.1.3.2) ns3::UdpHeader (length: 58 49153 > 9) ns3::SeqTsHeader ((seq=0 time=2)) Payload (size=38)
+ 2.02256 /NodeList/4/DeviceList/6/$ns3::PointToPointNetDevice/TxQueue/Enqueue ns3::PppHeader (Point-to-Point Protocol: IP (0x0021)) ns3::Ipv4Header (tos 0x0 DSCP Default ECN Not-ECT ttl 64 id 2 protocol 17 offset (bytes) 0 flags [none] length: 78 10.1.7.1 > 10.1.7.2) ns3::UdpHeader (length: 58 49153 > 9) Payload (size=50)
r 2.02256 /NodeList/4/DeviceList/4/$ns3::PointToPointNetDevice/MacRx ns3::PppHeader (Point-to-Point Protocol: IP (0x0021)) ns3::Ipv4Header (tos 0x0 DSCP Default ECN Not-ECT ttl 64 id 0 protocol 17 offset (bytes) 0 flags [none] length: 78 10.1.4.1 > 10.1.4.2) ns3::UdpHeader (length: 58 49153 > 9) ns3::SeqTsHeader ((seq=0 time=2)) Payload (size=38)
+ 2.02256 /NodeList/4/DeviceList/6/$ns3::PointToPointNetDevice/TxQueue/Enqueue ns3::PppHeader (Point-to-Point Protocol: IP (0x0021)) ns3::Ipv4Header (tos 0x0 DSCP Default ECN Not-ECT ttl 64 id 3 protocol 17 offset (bytes) 0 flags [none] length: 78 10.1.7.1 > 10.1.7.2) ns3::UdpHeader (length: 58 49153 > 9) Payload (size=50)
- 2.03536 /NodeList/4/DeviceList/6/$ns3::PointToPointNetDevice/TxQueue/Dequeue ns3::PppHeader (Point-to-Point Protocol: IP (0x0021)) ns3::Ipv4Header (tos 0x0 DSCP Default ECN Not-ECT ttl 64 id 1 protocol 17 offset (bytes) 0 flags [none] length: 78 10.1.7.1 > 10.1.7.2) ns3::UdpHeader (length: 58 49153 > 9) Payload (size=50)
- 2.04816 /NodeList/4/DeviceList/6/$ns3::PointToPointNetDevice/TxQueue/Dequeue ns3::PppHeader (Point-to-Point Protocol: IP (0x0021)) ns3::Ipv4Header (tos 0x0 DSCP Default ECN Not-ECT ttl 64 id 2 protocol 17 offset (bytes) 0 flags [none] length: 78 10.1.7.1 > 10.1.7.2) ns3::UdpHeader (length: 58 49153 > 9) Payload (size=50)
+ 2.05 /NodeList/0/DeviceList/1/$ns3::PointToPointNetDevice/TxQueue/Enqueue ns3::PppHeader (Point-to-Point Protocol: IP (0x0021)) ns3::Ipv4Header (tos 0x0 DSCP Default ECN Not-ECT ttl 64 id 1 protocol 17 offset (bytes) 0 flags [none] length: 78 10.1.1.1 > 10.1.1.2) ns3::UdpHeader (length: 58 49153 > 9) ns3::SeqTsHeader ((seq=1 time=2.05)) Payload (size=38)
- 2.05 /NodeList/0/DeviceList/1/$ns3::PointToPointNetDevice/TxQueue/Dequeue ns3::PppHeader (Point-to-Point Protocol: IP (0x0021)) ns3::Ipv4Header (tos 0x0 DSCP Default ECN Not-ECT ttl 64 id 1 protocol 17 offset (bytes) 0 flags [none] length: 78 10.1.1.1 > 10.1.1.2) ns3::UdpHeader (length: 58 49153 > 9) ns3::SeqTsHeader ((seq=1 time=2.05)) Payload (size=38)
+ 2.05 /NodeList/1/DeviceList/1/$ns3::PointToPointNetDevice/TxQueue/Enqueue ns3::PppHeader (Point-to-Point Protocol: IP (0x0021)) ns3::Ipv4Header (tos 0x0 DSCP Default ECN Not-ECT ttl 64 id 1 protocol 17 offset (bytes) 0 flags [none] length: 78 10.1.2.1 > 10.1.2.2) ns3::UdpHeader (length: 58 49153 > 9) ns3::SeqTsHeader ((seq=1 time=2.05)) Payload (size=38)
- 2.05 /NodeList/1/DeviceList/1/$ns3::PointToPointNetDevice/TxQueue/Dequeue ns3::PppHeader (Point-to-Point Protocol: IP (0x0021)) ns3::Ipv4Header (tos 0x0 DSCP Default ECN Not-ECT ttl 64 id 1 protocol 17 offset (bytes) 0 flags [none] length: 78 10.1.2.1 > 10.1.2.2) ns3::UdpHeader (length: 58 49153 > 9) ns3::SeqTsHeader ((seq=1 time=2.05)) Payload (size=38)
+ 2.05 /NodeList/2/DeviceList/1/$ns3::PointToPointNetDevice/TxQueue/Enqueue ns3::PppHeader (Point-to-Point Protocol: IP (0x0021)) ns3::Ipv4Header (tos 0x0 DSCP Default ECN Not-ECT ttl 64 id 1 protocol 17 offset (bytes) 0 flags [none] length: 78 10.1.3.1 > 10.1.3.2) ns3::UdpHeader (length: 58 49153 > 9) ns3::SeqTsHeader ((seq=1 time=2.05)) Payload (size=38)
- 2.05 /NodeList/2/DeviceList/1/$ns3::PointToPointNetDevice/TxQueue/Dequeue ns3::PppHeader (Point-to-Point Protocol: IP (0x0021)) ns3::Ipv4Header (tos 0x0 DSCP Default ECN Not-ECT ttl 64 id 1 protocol 17 offset (bytes) 0 flags [none] length: 78 10.1.3.1 > 10.1.3.2) ns3::UdpHeader (length: 58 49153 > 9) ns3::SeqTsHeader ((seq=1 time=2.05)) Payload (size=38)
+ 2.05 /NodeList/3/DeviceList/1/$ns3::PointToPointNetDevice/TxQueue/Enqueue ns3::PppHeader (Point-to-Point Protocol: IP (0x0021)) ns3::Ipv4Header (tos 0x0 DSCP Default ECN Not-ECT ttl 64 id 1 protocol 17 offset (bytes) 0 flags [none] length: 78 10.1.4.1 > 10.1.4.2) ns3::UdpHeader (length: 58 49153 > 9) ns3::SeqTsHeader ((seq=1 time=2.05)) Payload (size=38)
- 2.05 /NodeList/3/DeviceList/1/$ns3::PointToPointNetDevice/TxQueue/Dequeue ns3::PppHeader (Point-to-Point Protocol: IP (0x0021)) ns3::Ipv4Header (tos 0x0 DSCP Default ECN Not-ECT ttl 64 id 1 protocol 17 offset (bytes) 0 flags [none] length: 78 10.1.4.1 > 10.1.4.2) ns3::UdpHeader (length: 58 49153 > 9) ns3::SeqTsHeader ((seq=1 time=2.05)) Payload (size=38)
r 2.05536 /NodeList/6/DeviceList/2/$ns3::PointToPointNetDevice/MacRx ns3::PppHeader (Point-to-Point Protocol: IP (0x0021)) ns3::Ipv4Header (tos 0x0 DSCP Default ECN Not-ECT ttl 64 id 0 protocol 17 offset (bytes) 0 flags [none] length: 78 10.1.7.1 > 10.1.7.2) ns3::UdpHeader (length: 58 49153 > 9) Payload (size=50)
+ 2.05536 /NodeList/6/DeviceList/2/$ns3::PointToPointNetDevice/TxQueue/Enqueue ns3::PppHeader (Point-to-Point Protocol: IP (0x0021)) ns3::Ipv4Header (tos 0x0 DSCP Default ECN Not-ECT ttl 64 id 0 protocol 17 offset (bytes) 0 flags [none] length: 78 10.1.7.2 > 10.1.7.1) ns3::UdpHeader (length: 58 49153 > 10) Payload (size=50)
- 2.05536 /NodeList/6/DeviceList/2/$ns3::PointToPointNetDevice/TxQueue/Dequeue ns3::PppHeader (Point-to-Point Protocol: IP (0x0021)) ns3::Ipv4Header (tos 0x0 DSCP Default ECN Not-ECT ttl 64 id 0 protocol 17 offset (bytes) 0 flags [none] length: 78 10.1.7.2 > 10.1.7.1) ns3::UdpHeader (length: 58 49153 > 10) Payload (size=50)
- 2.06096 /NodeList/4/DeviceList/6/$ns3::PointToPointNetDevice/TxQueue/Dequeue ns3::PppHeader (Point-to-Point Protocol: IP (0x0021)) ns3::Ipv4Header (tos 0x0 DSCP Default ECN Not-ECT ttl 64 id 3 protocol 17 offset (bytes) 0 flags [none] length: 78 10.1.7.1 > 10.1.7.2) ns3::UdpHeader (length: 58 49153 > 9) Payload (size=50)
r 2.06816 /NodeList/6/DeviceList/2/$ns3::PointToPointNetDevice/MacRx ns3::PppHeader (Point-to-Point Protocol: IP (0x0021)) ns3::Ipv4Header (tos 0x0 DSCP Default ECN Not-ECT ttl 64 id 1 protocol 17 offset (bytes) 0 flags [none] length: 78 10.1.7.1 > 10.1.7.2) ns3::UdpHeader (length: 58 49153 > 9) Payload (size=50)
+ 2.06816 /NodeList/6/DeviceList/2/$ns3::PointToPointNetDevice/TxQueue/Enqueue ns3::PppHeader (Point-to-Point Protocol: IP (0x0021)) ns3::Ipv4Header (tos 0x0 DSCP Default ECN Not-ECT ttl 64 id 1 protocol 17 offset (bytes) 0 flags [none] length: 78 10.1.7.2 > 10.1.7.1) ns3::UdpHeader (length: 58 49153 > 10) Payload (size=50)
- 2.06816 /NodeList/6/DeviceList/2/$ns3::PointToPointNetDevice/TxQueue/Dequeue ns3::PppHeader (Point-to-Point Protocol: IP (0x0021)) ns3::Ipv4Header (tos 0x0 DSCP Default ECN Not-ECT ttl 64 id 1 protocol 17 offset (bytes) 0 flags [none] length: 78 10.1.7.2 > 10.1.7.1) ns3::UdpHeader (length: 58 49153 > 10) Payload (size=50)
r 2.07256 /NodeList/4/DeviceList/1/$ns3::PointToPointNetDevice/MacRx ns3::PppHeader (Point-to-Point Protocol: IP (0x0021)) ns3::Ipv4Header (tos 0x0 DSCP Default ECN Not-ECT ttl 64 id 1 protocol 17 offset (bytes) 0 flags [none] length: 78 10.1.1.1 > 10.1.1.2) ns3::UdpHeader (length: 58 49153 > 9) ns3::SeqTsHeader ((seq=1 time=2.05)) Payload (size=38)
+ 2.07256 /NodeList/4/DeviceList/6/$ns3::PointToPointNetDevice/TxQueue/Enqueue ns3::PppHeader (Point-to-Point Protocol: IP (0x0021)) ns3::Ipv4Header (tos 0x0 DSCP Default ECN Not-ECT ttl 64 id 4 protocol 17 offset (bytes) 0 flags [none] length: 78 10.1.7.1 > 10.1.7.2) ns3::UdpHeader (length: 58 49153 > 9) Payload (size=50)
r 2.07256 /NodeList/4/DeviceList/2/$ns3::PointToPointNetDevice/MacRx ns3::PppHeader (Point-to-Point Protocol: IP (0x0021)) ns3::Ipv4Header (tos 0x0 DSCP Default ECN Not-ECT ttl 64 id 1 protocol 17 offset (bytes) 0 flags [none] length: 78 10.1.2.1 > 10.1.2.2) ns3::UdpHeader (length: 58 49153 > 9) ns3::SeqTsHeader ((seq=1 time=2.05)) Payload (size=38)
+ 2.07256 /NodeList/4/DeviceList/6/$ns3::PointToPointNetDevice/TxQueue/Enqueue ns3::PppHeader (Point-to-Point Protocol: IP (0x0021)) ns3::Ipv4Header (tos 0x0 DSCP Default ECN Not-ECT ttl 64 id 5 protocol 17 offset (bytes) 0 flags [none] length: 78 10.1.7.1 > 10.1.7.2) ns3::UdpHeader (length: 58 49153 > 9) Payload (size=50)
r 2.07256 /NodeList/4/DeviceList/3/$ns3::PointToPointNetDevice/MacRx ns3::PppHeader (Point-to-Point Protocol: IP (0x0021)) ns3::Ipv4Header (tos 0x0 DSCP Default ECN Not-ECT ttl 64 id 1 protocol 17 offset (bytes) 0 flags [none] length: 78 10.1.3.1 > 10.1.3.2) ns3::UdpHeader (length: 58 49153 > 9) ns3::SeqTsHeader ((seq=1 time=2.05)) Payload (size=38)
+ 2.07256 /NodeList/4/DeviceList/6/$ns3::PointToPointNetDevice/TxQueue/Enqueue ns3::PppHeader (Point-to-Point Protocol: IP (0x0021)) ns3::Ipv4Header (tos 0x0 DSCP Default ECN Not-ECT ttl 64 id 6 protocol 17 offset (bytes) 0 flags [none] length: 78 10.1.7.1 > 10.1.7.2) ns3::UdpHeader (length: 58 49153 > 9) Payload (size=50)
r 2.07256 /NodeList/4/DeviceList/4/$ns3::PointToPointNetDevice/MacRx ns3::PppHeader (Point-to-Point Protocol: IP (0x0021)) ns3::Ipv4Header (tos 0x0 DSCP Default ECN Not-ECT ttl 64 id 1 protocol 17 offset (bytes) 0 flags [none] length: 78 10.1.4.1 > 10.1.4.2) ns3::UdpHeader (length: 58 49153 > 9) ns3::SeqTsHeader ((seq=1 time=2.05)) Payload (size=38)
+ 2.07256 /NodeList/4/DeviceList/6/$ns3::PointToPointNetDevice/TxQueue/Enqueue ns3::PppHeader (Point-to-Point Protocol: IP (0x0021)) ns3::Ipv4Header (tos 0x0 DSCP Default ECN Not-ECT ttl 64 id 7 protocol 17 offset (bytes) 0 flags [none] length: 78 10.1.7.1 > 10.1.7.2) ns3::UdpHeader (length: 58 49153 > 9) Payload (size=50)
- 2.07376 /NodeList/4/DeviceList/6/$ns3::PointToPointNetDevice/TxQueue/Dequeue ns3::PppHeader (Point-to-Point Protocol: IP (0x0021)) ns3::Ipv4Header (tos 0x0 DSCP Default ECN Not-ECT ttl 64 id 4 protocol 17 offset (bytes) 0 flags [none] length: 78 10.1.7.1 > 10.1.7.2) ns3::UdpHeader (length: 58 49153 > 9) Payload (size=50)
r 2.08096 /NodeList/6/DeviceList/2/$ns3::PointToPointNetDevice/MacRx ns3::PppHeader (Point-to-Point Protocol: IP (0x0021)) ns3::Ipv4Header (tos 0x0 DSCP Default ECN Not-ECT ttl 64 id 2 protocol 17 offset (bytes) 0 flags [none] length: 78 10.1.7.1 > 10.1.7.2) ns3::UdpHeader (length: 58 49153 > 9) Payload (size=50)
+ 2.08096 /NodeList/6/DeviceList/2/$ns3::PointToPointNetDevice/TxQueue/Enqueue ns3::PppHeader (Point-to-Point Protocol: IP (0x0021)) ns3::Ipv4Header (tos 0x0 DSCP Default ECN Not-ECT ttl 64 id 2 protocol 17 offset (bytes) 0 flags [none] length: 78 10.1.7.2 > 10.1.7.1) ns3::UdpHeader (length: 58 49153 > 10) Payload (size=50)
- 2.08096 /NodeList/6/DeviceList/2/$ns3::PointToPointNetDevice/TxQueue/Dequeue ns3::PppHeader (Point-to-Point Protocol: IP (0x0021)) ns3::Ipv4Header (tos 0x0 DSCP Default ECN Not-ECT ttl 64 id 2 protocol 17 offset (bytes) 0 flags [none] length: 78 10.1.7.2 > 10.1.7.1) ns3::UdpHeader (length: 58 49153 > 10) Payload (size=50)
- 2.08656 /NodeList/4/DeviceList/6/$ns3::PointToPointNetDevice/TxQueue/Dequeue ns3::PppHeader (Point-to-Point Protocol: IP (0x0021)) ns3::Ipv4Header (tos 0x0 DSCP Default ECN Not-ECT ttl 64 id 5 protocol 17 offset (bytes) 0 flags [none] length: 78 10.1.7.1 > 10.1.7.2) ns3::UdpHeader (length: 58 49153 > 9) Payload (size=50)
r 2.08816 /NodeList/4/DeviceList/6/$ns3::PointToPointNetDevice/MacRx ns3::PppHeader (Point-to-Point Protocol: IP (0x0021)) ns3::Ipv4Header (tos 0x0 DSCP Default ECN Not-ECT ttl 64 id 0 protocol 17 offset (bytes) 0 flags [none] length: 78 10.1.7.2 > 10.1.7.1) ns3::UdpHeader (length: 58 49153 > 10) Payload (size=50)
+ 2.08816 /NodeList/4/DeviceList/7/$ns3::PointToPointNetDevice/TxQueue/Enqueue ns3::PppHeader (Point-to-Point Protocol: IP (0x0021)) ns3::Ipv4Header (tos 0x0 DSCP Default ECN Not-ECT ttl 64 id 0 protocol 17 offset (bytes) 0 flags [none] length: 78 10.1.8.1 > 10.1.8.2) ns3::UdpHeader (length: 58 49154 > 10) Payload (size=50)
- 2.08816 /NodeList/4/DeviceList/7/$ns3::PointToPointNetDevice/TxQueue/Dequeue ns3::PppHeader (Point-to-Point Protocol: IP (0x0021)) ns3::Ipv4Header (tos 0x0 DSCP Default ECN Not-ECT ttl 64 id 0 protocol 17 offset (bytes) 0 flags [none] length: 78 10.1.8.1 > 10.1.8.2) ns3::UdpHeader (length: 58 49154 > 10) Payload (size=50)
r 2.09376 /NodeList/6/DeviceList/2/$ns3::PointToPointNetDevice/MacRx ns3::PppHeader (Point-to-Point Protocol: IP (0x0021)) ns3::Ipv4Header (tos 0x0 DSCP Default ECN Not-ECT ttl 64 id 3 protocol 17 offset (bytes) 0 flags [none] length: 78 10.1.7.1 > 10.1.7.2) ns3::UdpHeader (length: 58 49153 > 9) Payload (size=50)
+ 2.09376 /NodeList/6/DeviceList/2/$ns3::PointToPointNetDevice/TxQueue/Enqueue ns3::PppHeader (Point-to-Point Protocol: IP (0x0021)) ns3::Ipv4Header (tos 0x0 DSCP Default ECN Not-ECT ttl 64 id 3 protocol 17 offset (bytes) 0 flags [none] length: 78 10.1.7.2 > 10.1.7.1) ns3::UdpHeader (length: 58 49153 > 10) Payload (size=50)
- 2.09376 /NodeList/6/DeviceList/2/$ns3::PointToPointNetDevice/TxQueue/Dequeue ns3::PppHeader (Point-to-Point Protocol: IP (0x0021)) ns3::Ipv4Header (tos 0x0 DSCP Default ECN Not-ECT ttl 64 id 3 protocol 17 offset (bytes) 0 flags [none] length: 78 10.1.7.2 > 10.1.7.1) ns3::UdpHeader (length: 58 49153 > 10) Payload (size=50)
- 2.09936 /NodeList/4/DeviceList/6/$ns3::PointToPointNetDevice/TxQueue/Dequeue ns3::PppHeader (Point-to-Point Protocol: IP (0x0021)) ns3::Ipv4Header (tos 0x0 DSCP Default ECN Not-ECT ttl 64 id 6 protocol 17 offset (bytes) 0 flags [none] length: 78 10.1.7.1 > 10.1.7.2) ns3::UdpHeader (length: 58 49153 > 9) Payload (size=50)
+ 2.1 /NodeList/0/DeviceList/1/$ns3::PointToPointNetDevice/TxQueue/Enqueue ns3::PppHeader (Point-to-Point Protocol: IP (0x0021)) ns3::Ipv4Header (tos 0x0 DSCP Default ECN Not-ECT ttl 64 id 2 protocol 17 offset (bytes) 0 flags [none] length: 78 10.1.1.1 > 10.1.1.2) ns3::UdpHeader (length: 58 49153 > 9) ns3::SeqTsHeader ((seq=2 time=2.1)) Payload (size=38)
- 2.1 /NodeList/0/DeviceList/1/$ns3::PointToPointNetDevice/TxQueue/Dequeue ns3::PppHeader (Point-to-Point Protocol: IP (0x0021)) ns3::Ipv4Header (tos 0x0 DSCP Default ECN Not-ECT ttl 64 id 2 protocol 17 offset (bytes) 0 flags [none] length: 78 10.1.1.1 > 10.1.1.2) ns3::UdpHeader (length: 58 49153 > 9) ns3::SeqTsHeader ((seq=2 time=2.1)) Payload (size=38)
+ 2.1 /NodeList/1/DeviceList/1/$ns3::PointToPointNetDevice/TxQueue/Enqueue ns3::PppHeader (Point-to-Point Protocol: IP (0x0021)) ns3::Ipv4Header (tos 0x0 DSCP Default ECN Not-ECT ttl 64 id 2 protocol 17 offset (bytes) 0 flags [none] length: 78 10.1.2.1 > 10.1.2.2) ns3::UdpHeader (length: 58 49153 > 9) ns3::SeqTsHeader ((seq=2 time=2.1)) Payload (size=38)
- 2.1 /NodeList/1/DeviceList/1/$ns3::PointToPointNetDevice/TxQueue/Dequeue ns3::PppHeader (Point-to-Point Protocol: IP (0x0021)) ns3::Ipv4Header (tos 0x0 DSCP Default ECN Not-ECT ttl 64 id 2 protocol 17 offset (bytes) 0 flags [none] length: 78 10.1.2.1 > 10.1.2.2) ns3::UdpHeader (length: 58 49153 > 9) ns3::SeqTsHeader ((seq=2 time=2.1)) Payload (size=38)
+ 2.1 /NodeList/2/DeviceList/1/$ns3::PointToPointNetDevice/TxQueue/Enqueue ns3::PppHeader (Point-to-Point Protocol: IP (0x0021)) ns3::Ipv4Header (tos 0x0 DSCP Default ECN Not-ECT ttl 64 id 2 protocol 17 offset (bytes) 0 flags [none] length: 78 10.1.3.1 > 10.1.3.2) ns3::UdpHeader (length: 58 49153 > 9) ns3::SeqTsHeader ((seq=2 time=2.1)) Payload (size=38)
- 2.1 /NodeList/2/DeviceList/1/$ns3::PointToPointNetDevice/TxQueue/Dequeue ns3::PppHeader (Point-to-Point Protocol: IP (0x0021)) ns3::Ipv4Header (tos 0x0 DSCP Default ECN Not-ECT ttl 64 id 2 protocol 17 offset (bytes) 0 flags [none] length: 78 10.1.3.1 > 10.1.3.2) ns3::UdpHeader (length: 58 49153 > 9) ns3::SeqTsHeader ((seq=2 time=2.1)) Payload (size=38)
+ 2.1 /NodeList/3/DeviceList/1/$ns3::PointToPointNetDevice/TxQueue/Enqueue ns3::PppHeader (Point-to-Point Protocol: IP (0x0021)) ns3::Ipv4Header (tos 0x0 DSCP Default ECN Not-ECT ttl 64 id 2 protocol 17 offset (bytes) 0 flags [none] length: 78 10.1.4.1 > 10.1.4.2) ns3::UdpHeader (length: 58 49153 > 9) ns3::SeqTsHeader ((seq=2 time=2.1)) Payload (size=38)
- 2.1 /NodeList/3/DeviceList/1/$ns3::PointToPointNetDevice/TxQueue/Dequeue ns3::PppHeader (Point-to-Point Protocol: IP (0x0021)) ns3::Ipv4Header (tos 0x0 DSCP Default ECN Not-ECT ttl 64 id 2 protocol 17 offset (bytes) 0 flags [none] length: 78 10.1.4.1 > 10.1.4.2) ns3::UdpHeader (length: 58 49153 > 9) ns3::SeqTsHeader ((seq=2 time=2.1)) Payload (size=38)
r 2.10096 /NodeList/4/DeviceList/6/$ns3::PointToPointNetDevice/MacRx ns3::PppHeader (Point-to-Point Protocol: IP (0x0021)) ns3::Ipv4Header (tos 0x0 DSCP Default ECN Not-ECT ttl 64 id 1 protocol 17 offset (bytes) 0 flags [none] length: 78 10.1.7.2 > 10.1.7.1) ns3::UdpHeader (length: 58 49153 > 10) Payload (size=50)
+ 2.10096 /NodeList/4/DeviceList/7/$ns3::PointToPointNetDevice/TxQueue/Enqueue ns3::PppHeader (Point-to-Point Protocol: IP (0x0021)) ns3::Ipv4Header (tos 0x0 DSCP Default ECN Not-ECT ttl 64 id 1 protocol 17 offset (bytes) 0 flags [none] length: 78 10.1.8.1 > 10.1.8.2) ns3::UdpHeader (length: 58 49154 > 10) Payload (size=50)
- 2.10096 /NodeList/4/DeviceList/7/$ns3::PointToPointNetDevice/TxQueue/Dequeue ns3::PppHeader (Point-to-Point Protocol: IP (0x0021)) ns3::Ipv4Header (tos 0x0 DSCP Default ECN Not-ECT ttl 64 id 1 protocol 17 offset (bytes) 0 flags [none] length: 78 10.1.8.1 > 10.1.8.2) ns3::UdpHeader (length: 58 49154 > 10) Payload (size=50)
r 2.10656 /NodeList/6/DeviceList/2/$ns3::PointToPointNetDevice/MacRx ns3::PppHeader (Point-to-Point Protocol: IP (0x0021)) ns3::Ipv4Header (tos 0x0 DSCP Default ECN Not-ECT ttl 64 id 4 protocol 17 offset (bytes) 0 flags [none] length: 78 10.1.7.1 > 10.1.7.2) ns3::UdpHeader (length: 58 49153 > 9) Payload (size=50)
+ 2.10656 /NodeList/6/DeviceList/2/$ns3::PointToPointNetDevice/TxQueue/Enqueue ns3::PppHeader (Point-to-Point Protocol: IP (0x0021)) ns3::Ipv4Header (tos 0x0 DSCP Default ECN Not-ECT ttl 64 id 4 protocol 17 offset (bytes) 0 flags [none] length: 78 10.1.7.2 > 10.1.7.1) ns3::UdpHeader (length: 58 49153 > 10) Payload (size=50)
- 2.10656 /NodeList/6/DeviceList/2/$ns3::PointToPointNetDevice/TxQueue/Dequeue ns3::PppHeader (Point-to-Point Protocol: IP (0x0021)) ns3::Ipv4Header (tos 0x0 DSCP Default ECN Not-ECT ttl 64 id 4 protocol 17 offset (bytes) 0 flags [none] length: 78 10.1.7.2 > 10.1.7.1) ns3::UdpHeader (length: 58 49153 > 10) Payload (size=50)
- 2.11216 /NodeList/4/DeviceList/6/$ns3::PointToPointNetDevice/TxQueue/Dequeue ns3::PppHeader (Point-to-Point Protocol: IP (0x0021)) ns3::Ipv4Header (tos 0x0 DSCP Default ECN Not-ECT ttl 64 id 7 protocol 17 offset (bytes) 0 flags [none] length: 78 10.1.7.1 > 10.1.7.2) ns3::UdpHeader (length: 58 49153 > 9) Payload (size=50)
r 2.11376 /NodeList/4/DeviceList/6/$ns3::PointToPointNetDevice/MacRx ns3::PppHeader (Point-to-Point Protocol: IP (0x0021)) ns3::Ipv4Header (tos 0x0 DSCP Default ECN Not-ECT ttl 64 id 2 protocol 17 offset (bytes) 0 flags [none] length: 78 10.1.7.2 > 10.1.7.1) ns3::UdpHeader (length: 58 49153 > 10) Payload (size=50)
+ 2.11376 /NodeList/4/DeviceList/7/$ns3::PointToPointNetDevice/TxQueue/Enqueue ns3::PppHeader (Point-to-Point Protocol: IP (0x0021)) ns3::Ipv4Header (tos 0x0 DSCP Default ECN Not-ECT ttl 64 id 2 protocol 17 offset (bytes) 0 flags [none] length: 78 10.1.8.1 > 10.1.8.2) ns3::UdpHeader (length: 58 49154 > 10) Payload (size=50)
- 2.11376 /NodeList/4/DeviceList/7/$ns3::PointToPointNetDevice/TxQueue/Dequeue ns3::PppHeader (Point-to-Point Protocol: IP (0x0021)) ns3::Ipv4Header (tos 0x0 DSCP Default ECN Not-ECT ttl 64 id 2 protocol 17 offset (bytes) 0 flags [none] length: 78 10.1.8.1 > 10.1.8.2) ns3::UdpHeader (length: 58 49154 > 10) Payload (size=50)
r 2.11456 /NodeList/7/DeviceList/1/$ns3::PointToPointNetDevice/MacRx ns3::PppHeader (Point-to-Point Protocol: IP (0x0021)) ns3::Ipv4Header (tos 0x0 DSCP Default ECN Not-ECT ttl 64 id 0 protocol 17 offset (bytes) 0 flags [none] length: 78 10.1.8.1 > 10.1.8.2) ns3::UdpHeader (length: 58 49154 > 10) Payload (size=50)
+ 2.11456 /NodeList/7/DeviceList/1/$ns3::PointToPointNetDevice/TxQueue/Enqueue ns3::PppHeader (Point-to-Point Protocol: IP (0x0021)) ns3::Ipv4Header (tos 0x0 DSCP Default ECN Not-ECT ttl 64 id 0 protocol 1 offset (bytes) 0 flags [none] length: 56 10.1.8.2 > 10.1.8.1) ns3::Icmpv4Header (type=3, code=3) ns3::Icmpv4DestinationUnreachable (tos 0x0 DSCP Default ECN Not-ECT ttl 64 id 0 protocol 17 offset (bytes) 0 flags [none] length: 78 10.1.8.1 > 10.1.8.2 org data=192 2 0 10 0 58 0 0 )
- 2.11456 /NodeList/7/DeviceList/1/$ns3::PointToPointNetDevice/TxQueue/Dequeue ns3::PppHeader (Point-to-Point Protocol: IP (0x0021)) ns3::Ipv4Header (tos 0x0 DSCP Default ECN Not-ECT ttl 64 id 0 protocol 1 offset (bytes) 0 flags [none] length: 56 10.1.8.2 > 10.1.8.1) ns3::Icmpv4Header (type=3, code=3) ns3::Icmpv4DestinationUnreachable (tos 0x0 DSCP Default ECN Not-ECT ttl 64 id 0 protocol 17 offset (bytes) 0 flags [none] length: 78 10.1.8.1 > 10.1.8.2 org data=192 2 0 10 0 58 0 0 )
r 2.11936 /NodeList/6/DeviceList/2/$ns3::PointToPointNetDevice/MacRx ns3::PppHeader (Point-to-Point Protocol: IP (0x0021)) ns3::Ipv4Header (tos 0x0 DSCP Default ECN Not-ECT ttl 64 id 5 protocol 17 offset (bytes) 0 flags [none] length: 78 10.1.7.1 > 10.1.7.2) ns3::UdpHeader (length: 58 49153 > 9) Payload (size=50)
+ 2.11936 /NodeList/6/DeviceList/2/$ns3::PointToPointNetDevice/TxQueue/Enqueue ns3::PppHeader (Point-to-Point Protocol: IP (0x0021)) ns3::Ipv4Header (tos 0x0 DSCP Default ECN Not-ECT ttl 64 id 5 protocol 17 offset (bytes) 0 flags [none] length: 78 10.1.7.2 > 10.1.7.1) ns3::UdpHeader (length: 58 49153 > 10) Payload (size=50)
- 2.11936 /NodeList/6/DeviceList/2/$ns3::PointToPointNetDevice/TxQueue/Dequeue ns3::PppHeader (Point-to-Point Protocol: IP (0x0021)) ns3::Ipv4Header (tos 0x0 DSCP Default ECN Not-ECT ttl 64 id 5 protocol 17 offset (bytes) 0 flags [none] length: 78 10.1.7.2 > 10.1.7.1) ns3::UdpHeader (length: 58 49153 > 10) Payload (size=50)
r 2.12256 /NodeList/4/DeviceList/1/$ns3::PointToPointNetDevice/MacRx ns3::PppHeader (Point-to-Point Protocol: IP (0x0021)) ns3::Ipv4Header (tos 0x0 DSCP Default ECN Not-ECT ttl 64 id 2 protocol 17 offset (bytes) 0 flags [none] length: 78 10.1.1.1 > 10.1.1.2) ns3::UdpHeader (length: 58 49153 > 9) ns3::SeqTsHeader ((seq=2 time=2.1)) Payload (size=38)
+ 2.12256 /NodeList/4/DeviceList/6/$ns3::PointToPointNetDevice/TxQueue/Enqueue ns3::PppHeader (Point-to-Point Protocol: IP (0x0021)) ns3::Ipv4Header (tos 0x0 DSCP Default ECN Not-ECT ttl 64 id 8 protocol 17 offset (bytes) 0 flags [none] length: 78 10.1.7.1 > 10.1.7.2) ns3::UdpHeader (length: 58 49153 > 9) Payload (size=50)
r 2.12256 /NodeList/4/DeviceList/2/$ns3::PointToPointNetDevice/MacRx ns3::PppHeader (Point-to-Point Protocol: IP (0x0021)) ns3::Ipv4Header (tos 0x0 DSCP Default ECN Not-ECT ttl 64 id 2 protocol 17 offset (bytes) 0 flags [none] length: 78 10.1.2.1 > 10.1.2.2) ns3::UdpHeader (length: 58 49153 > 9) ns3::SeqTsHeader ((seq=2 time=2.1)) Payload (size=38)
+ 2.12256 /NodeList/4/DeviceList/6/$ns3::PointToPointNetDevice/TxQueue/Enqueue ns3::PppHeader (Point-to-Point Protocol: IP (0x0021)) ns3::Ipv4Header (tos 0x0 DSCP Default ECN Not-ECT ttl 64 id 9 protocol 17 offset (bytes) 0 flags [none] length: 78 10.1.7.1 > 10.1.7.2) ns3::UdpHeader (length: 58 49153 > 9) Payload (size=50)
r 2.12256 /NodeList/4/DeviceList/3/$ns3::PointToPointNetDevice/MacRx ns3::PppHeader (Point-to-Point Protocol: IP (0x0021)) ns3::Ipv4Header (tos 0x0 DSCP Default ECN Not-ECT ttl 64 id 2 protocol 17 offset (bytes) 0 flags [none] length: 78 10.1.3.1 > 10.1.3.2) ns3::UdpHeader (length: 58 49153 > 9) ns3::SeqTsHeader ((seq=2 time=2.1)) Payload (size=38)
+ 2.12256 /NodeList/4/DeviceList/6/$ns3::PointToPointNetDevice/TxQueue/Enqueue ns3::PppHeader (Point-to-Point Protocol: IP (0x0021)) ns3::Ipv4Header (tos 0x0 DSCP Default ECN Not-ECT ttl 64 id 10 protocol 17 offset (bytes) 0 flags [none] length: 78 10.1.7.1 > 10.1.7.2) ns3::UdpHeader (length: 58 49153 > 9) Payload (size=50)
r 2.12256 /NodeList/4/DeviceList/4/$ns3::PointToPointNetDevice/MacRx ns3::PppHeader (Point-to-Point Protocol: IP (0x0021)) ns3::Ipv4Header (tos 0x0 DSCP Default ECN Not-ECT ttl 64 id 2 protocol 17 offset (bytes) 0 flags [none] length: 78 10.1.4.1 > 10.1.4.2) ns3::UdpHeader (length: 58 49153 > 9) ns3::SeqTsHeader ((seq=2 time=2.1)) Payload (size=38)
+ 2.12256 /NodeList/4/DeviceList/6/$ns3::PointToPointNetDevice/TxQueue/Enqueue ns3::PppHeader (Point-to-Point Protocol: IP (0x0021)) ns3::Ipv4Header (tos 0x0 DSCP Default ECN Not-ECT ttl 64 id 11 protocol 17 offset (bytes) 0 flags [none] length: 78 10.1.7.1 > 10.1.7.2) ns3::UdpHeader (length: 58 49153 > 9) Payload (size=50)
- 2.12496 /NodeList/4/DeviceList/6/$ns3::PointToPointNetDevice/TxQueue/Dequeue ns3::PppHeader (Point-to-Point Protocol: IP (0x0021)) ns3::Ipv4Header (tos 0x0 DSCP Default ECN Not-ECT ttl 64 id 8 protocol 17 offset (bytes) 0 flags [none] length: 78 10.1.7.1 > 10.1.7.2) ns3::UdpHeader (length: 58 49153 > 9) Payload (size=50)
r 2.12656 /NodeList/4/DeviceList/6/$ns3::PointToPointNetDevice/MacRx ns3::PppHeader (Point-to-Point Protocol: IP (0x0021)) ns3::Ipv4Header (tos 0x0 DSCP Default ECN Not-ECT ttl 64 id 3 protocol 17 offset (bytes) 0 flags [none] length: 78 10.1.7.2 > 10.1.7.1) ns3::UdpHeader (length: 58 49153 > 10) Payload (size=50)