+ 2.00299 /NodeList/0/DeviceList/2/$ns3::PointToPointNetDevice/TxQueue/Enqueue ns3::PppHeader (Point-to-Point Protocol: IP (0x0021)) ns3::Ipv4Header (tos 0x0 DSCP Default ECN Not-ECT ttl 64 id 0 protocol 17 offset (bytes) 0 flags [none] length: 78 10.1.1.1 > 10.1.1.2) ns3::UdpHeader (length: 58 49153 > 9) Payload (size=50)
- 2.00299 /NodeList/0/DeviceList/2/$ns3::PointToPointNetDevice/TxQueue/Dequeue ns3::PppHeader (Point-to-Point Protocol: IP (0x0021)) ns3::Ipv4Header (tos 0x0 DSCP Default ECN Not-ECT ttl 64 id 0 protocol 17 offset (bytes) 0 flags [none] length: 78 10.1.1.1 > 10.1.1.2) ns3::UdpHeader (length: 58 49153 > 9) Payload (size=50)
+ 2.00411 /NodeList/0/DeviceList/3/$ns3::PointToPointNetDevice/TxQueue/Enqueue ns3::PppHeader (Point-to-Point Protocol: IP (0x0021)) ns3::Ipv4Header (tos 0x0 DSCP Default ECN Not-ECT ttl 64 id 0 protocol 17 offset (bytes) 0 flags [none] length: 78 10.1.3.1 > 10.1.3.2) ns3::UdpHeader (length: 58 49154 > 9) Payload (size=50)
- 2.00411 /NodeList/0/DeviceList/3/$ns3::PointToPointNetDevice/TxQueue/Dequeue ns3::PppHeader (Point-to-Point Protocol: IP (0x0021)) ns3::Ipv4Header (tos 0x0 DSCP Default ECN Not-ECT ttl 64 id 0 protocol 17 offset (bytes) 0 flags [none] length: 78 10.1.3.1 > 10.1.3.2) ns3::UdpHeader (length: 58 49154 > 9) Payload (size=50)
+ 2.00599 /NodeList/0/DeviceList/3/$ns3::PointToPointNetDevice/TxQueue/Enqueue ns3::PppHeader (Point-to-Point Protocol: IP (0x0021)) ns3::Ipv4Header (tos 0x0 DSCP Default ECN Not-ECT ttl 64 id 1 protocol 17 offset (bytes) 0 flags [none] length: 78 10.1.3.1 > 10.1.3.2) ns3::UdpHeader (length: 58 49154 > 9) Payload (size=50)
+ 2.00796 /NodeList/0/DeviceList/3/$ns3::PointToPointNetDevice/TxQueue/Enqueue ns3::PppHeader (Point-to-Point Protocol: IP (0x0021)) ns3::Ipv4Header (tos 0x0 DSCP Default ECN Not-ECT ttl 64 id 2 protocol 17 offset (bytes) 0 flags [none] length: 78 10.1.3.1 > 10.1.3.2) ns3::UdpHeader (length: 58 49154 > 9) Payload (size=50)
- 2.01691 /NodeList/0/DeviceList/3/$ns3::PointToPointNetDevice/TxQueue/Dequeue ns3::PppHeader (Point-to-Point Protocol: IP (0x0021)) ns3::Ipv4Header (tos 0x0 DSCP Default ECN Not-ECT ttl 64 id 1 protocol 17 offset (bytes) 0 flags [none] length: 78 10.1.3.1 > 10.1.3.2) ns3::UdpHeader (length: 58 49154 > 9) Payload (size=50)
r 2.02555 /NodeList/1/DeviceList/1/$ns3::PointToPointNetDevice/MacRx ns3::PppHeader (Point-to-Point Protocol: IP (0x0021)) ns3::Ipv4Header (tos 0x0 DSCP Default ECN Not-ECT ttl 64 id 0 protocol 17 offset (bytes) 0 flags [none] length: 78 10.1.1.1 > 10.1.1.2) ns3::UdpHeader (length: 58 49153 > 9) Payload (size=50)
+ 2.02555 /NodeList/1/DeviceList/2/$ns3::PointToPointNetDevice/TxQueue/Enqueue ns3::PppHeader (Point-to-Point Protocol: IP (0x0021)) ns3::Ipv4Header (tos 0x0 DSCP Default ECN Not-ECT ttl 64 id 0 protocol 17 offset (bytes) 0 flags [none] length: 78 10.1.2.1 > 10.1.2.2) ns3::UdpHeader (length: 58 49153 > 9) Payload (size=50)
- 2.02555 /NodeList/1/DeviceList/2/$ns3::PointToPointNetDevice/TxQueue/Dequeue ns3::PppHeader (Point-to-Point Protocol: IP (0x0021)) ns3::Ipv4Header (tos 0x0 DSCP Default ECN Not-ECT ttl 64 id 0 protocol 17 offset (bytes) 0 flags [none] length: 78 10.1.2.1 > 10.1.2.2) ns3::UdpHeader (length: 58 49153 > 9) Payload (size=50)
- 2.02971 /NodeList/0/DeviceList/3/$ns3::PointToPointNetDevice/TxQueue/Dequeue ns3::PppHeader (Point-to-Point Protocol: IP (0x0021)) ns3::Ipv4Header (tos 0x0 DSCP Default ECN Not-ECT ttl 64 id 2 protocol 17 offset (bytes) 0 flags [none] length: 78 10.1.3.1 > 10.1.3.2) ns3::UdpHeader (length: 58 49154 > 9) Payload (size=50)
r 2.03691 /NodeList/2/DeviceList/2/$ns3::PointToPointNetDevice/MacRx ns3::PppHeader (Point-to-Point Protocol: IP (0x0021)) ns3::Ipv4Header (tos 0x0 DSCP Default ECN Not-ECT ttl 64 id 0 protocol 17 offset (bytes) 0 flags [none] length: 78 10.1.3.1 > 10.1.3.2) ns3::UdpHeader (length: 58 49154 > 9) Payload (size=50)
+ 2.03691 /NodeList/2/DeviceList/2/$ns3::PointToPointNetDevice/TxQueue/Enqueue ns3::PppHeader (Point-to-Point Protocol: IP (0x0021)) ns3::Ipv4Header (tos 0x0 DSCP Default ECN Not-ECT ttl 64 id 0 protocol 17 offset (bytes) 0 flags [none] length: 78 10.1.3.2 > 10.1.3.1) ns3::UdpHeader (length: 58 49153 > 10) Payload (size=50)
- 2.03691 /NodeList/2/DeviceList/2/$ns3::PointToPointNetDevice/TxQueue/Dequeue ns3::PppHeader (Point-to-Point Protocol: IP (0x0021)) ns3::Ipv4Header (tos 0x0 DSCP Default ECN Not-ECT ttl 64 id 0 protocol 17 offset (bytes) 0 flags [none] length: 78 10.1.3.2 > 10.1.3.1) ns3::UdpHeader (length: 58 49153 > 10) Payload (size=50)
r 2.04971 /NodeList/2/DeviceList/2/$ns3::PointToPointNetDevice/MacRx ns3::PppHeader (Point-to-Point Protocol: IP (0x0021)) ns3::Ipv4Header (tos 0x0 DSCP Default ECN Not-ECT ttl 64 id 1 protocol 17 offset (bytes) 0 flags [none] length: 78 10.1.3.1 > 10.1.3.2) ns3::UdpHeader (length: 58 49154 > 9) Payload (size=50)
+ 2.04971 /NodeList/2/DeviceList/2/$ns3::PointToPointNetDevice/TxQueue/Enqueue ns3::PppHeader (Point-to-Point Protocol: IP (0x0021)) ns3::Ipv4Header (tos 0x0 DSCP Default ECN Not-ECT ttl 64 id 1 protocol 17 offset (bytes) 0 flags [none] length: 78 10.1.3.2 > 10.1.3.1) ns3::UdpHeader (length: 58 49153 > 10) Payload (size=50)
- 2.04971 /NodeList/2/DeviceList/2/$ns3::PointToPointNetDevice/TxQueue/Dequeue ns3::PppHeader (Point-to-Point Protocol: IP (0x0021)) ns3::Ipv4Header (tos 0x0 DSCP Default ECN Not-ECT ttl 64 id 1 protocol 17 offset (bytes) 0 flags [none] length: 78 10.1.3.2 > 10.1.3.1) ns3::UdpHeader (length: 58 49153 > 10) Payload (size=50)
+ 2.05054 /NodeList/0/DeviceList/3/$ns3::PointToPointNetDevice/TxQueue/Enqueue ns3::PppHeader (Point-to-Point Protocol: IP (0x0021)) ns3::Ipv4Header (tos 0x0 DSCP Default ECN Not-ECT ttl 64 id 3 protocol 17 offset (bytes) 0 flags [none] length: 78 10.1.3.1 > 10.1.3.2) ns3::UdpHeader (length: 58 49154 > 9) Payload (size=50)
- 2.05054 /NodeList/0/DeviceList/3/$ns3::PointToPointNetDevice/TxQueue/Dequeue ns3::PppHeader (Point-to-Point Protocol: IP (0x0021)) ns3::Ipv4Header (tos 0x0 DSCP Default ECN Not-ECT ttl 64 id 3 protocol 17 offset (bytes) 0 flags [none] length: 78 10.1.3.1 > 10.1.3.2) ns3::UdpHeader (length: 58 49154 > 9) Payload (size=50)
+ 2.05088 /NodeList/0/DeviceList/3/$ns3::PointToPointNetDevice/TxQueue/Enqueue ns3::PppHeader (Point-to-Point Protocol: IP (0x0021)) ns3::Ipv4Header (tos 0x0 DSCP Default ECN Not-ECT ttl 64 id 4 protocol 17 offset (bytes) 0 flags [none] length: 78 10.1.3.1 > 10.1.3.2) ns3::UdpHeader (length: 58 49154 > 9) Payload (size=50)
+ 2.05157 /NodeList/0/DeviceList/3/$ns3::PointToPointNetDevice/TxQueue/Enqueue ns3::PppHeader (Point-to-Point Protocol: IP (0x0021)) ns3::Ipv4Header (tos 0x0 DSCP Default ECN Not-ECT ttl 64 id 5 protocol 17 offset (bytes) 0 flags [none] length: 78 10.1.3.1 > 10.1.3.2) ns3::UdpHeader (length: 58 49154 > 9) Payload (size=50)
+ 2.05193 /NodeList/0/DeviceList/3/$ns3::PointToPointNetDevice/TxQueue/Enqueue ns3::PppHeader (Point-to-Point Protocol: IP (0x0021)) ns3::Ipv4Header (tos 0x0 DSCP Default ECN Not-ECT ttl 64 id 6 protocol 17 offset (bytes) 0 flags [none] length: 78 10.1.3.1 > 10.1.3.2) ns3::UdpHeader (length: 58 49154 > 9) Payload (size=50)
r 2.05835 /NodeList/2/DeviceList/1/$ns3::PointToPointNetDevice/MacRx ns3::PppHeader (Point-to-Point Protocol: IP (0x0021)) ns3::Ipv4Header (tos 0x0 DSCP Default ECN Not-ECT ttl 64 id 0 protocol 17 offset (bytes) 0 flags [none] length: 78 10.1.2.1 > 10.1.2.2) ns3::UdpHeader (length: 58 49153 > 9) Payload (size=50)
+ 2.05835 /NodeList/2/DeviceList/2/$ns3::PointToPointNetDevice/TxQueue/Enqueue ns3::PppHeader (Point-to-Point Protocol: IP (0x0021)) ns3::Ipv4Header (tos 0x0 DSCP Default ECN Not-ECT ttl 64 id 2 protocol 17 offset (bytes) 0 flags [none] length: 78 10.1.3.2 > 10.1.3.1) ns3::UdpHeader (length: 58 49153 > 10) Payload (size=50)
r 2.06251 /NodeList/2/DeviceList/2/$ns3::PointToPointNetDevice/MacRx ns3::PppHeader (Point-to-Point Protocol: IP (0x0021)) ns3::Ipv4Header (tos 0x0 DSCP Default ECN Not-ECT ttl 64 id 2 protocol 17 offset (bytes) 0 flags [none] length: 78 10.1.3.1 > 10.1.3.2) ns3::UdpHeader (length: 58 49154 > 9) Payload (size=50)
+ 2.06251 /NodeList/2/DeviceList/2/$ns3::PointToPointNetDevice/TxQueue/Enqueue ns3::PppHeader (Point-to-Point Protocol: IP (0x0021)) ns3::Ipv4Header (tos 0x0 DSCP Default ECN Not-ECT ttl 64 id 3 protocol 17 offset (bytes) 0 flags [none] length: 78 10.1.3.2 > 10.1.3.1) ns3::UdpHeader (length: 58 49153 > 10) Payload (size=50)
- 2.06251 /NodeList/2/DeviceList/2/$ns3::PointToPointNetDevice/TxQueue/Dequeue ns3::PppHeader (Point-to-Point Protocol: IP (0x0021)) ns3::Ipv4Header (tos 0x0 DSCP Default ECN Not-ECT ttl 64 id 2 protocol 17 offset (bytes) 0 flags [none] length: 78 10.1.3.2 > 10.1.3.1) ns3::UdpHeader (length: 58 49153 > 10) Payload (size=50)
- 2.06334 /NodeList/0/DeviceList/3/$ns3::PointToPointNetDevice/TxQueue/Dequeue ns3::PppHeader (Point-to-Point Protocol: IP (0x0021)) ns3::Ipv4Header (tos 0x0 DSCP Default ECN Not-ECT ttl 64 id 4 protocol 17 offset (bytes) 0 flags [none] length: 78 10.1.3.1 > 10.1.3.2) ns3::UdpHeader (length: 58 49154 > 9) Payload (size=50)
r 2.06971 /NodeList/0/DeviceList/3/$ns3::PointToPointNetDevice/MacRx ns3::PppHeader (Point-to-Point Protocol: IP (0x0021)) ns3::Ipv4Header (tos 0x0 DSCP Default ECN Not-ECT ttl 64 id 0 protocol 17 offset (bytes) 0 flags [none] length: 78 10.1.3.2 > 10.1.3.1) ns3::UdpHeader (length: 58 49153 > 10) Payload (size=50)
- 2.07531 /NodeList/2/DeviceList/2/$ns3::PointToPointNetDevice/TxQueue/Dequeue ns3::PppHeader (Point-to-Point Protocol: IP (0x0021)) ns3::Ipv4Header (tos 0x0 DSCP Default ECN Not-ECT ttl 64 id 3 protocol 17 offset (bytes) 0 flags [none] length: 78 10.1.3.2 > 10.1.3.1) ns3::UdpHeader (length: 58 49153 > 10) Payload (size=50)
- 2.07614 /NodeList/0/DeviceList/3/$ns3::PointToPointNetDevice/TxQueue/Dequeue ns3::PppHeader (Point-to-Point Protocol: IP (0x0021)) ns3::Ipv4Header (tos 0x0 DSCP Default ECN Not-ECT ttl 64 id 5 protocol 17 offset (bytes) 0 flags [none] length: 78 10.1.3.1 > 10.1.3.2) ns3::UdpHeader (length: 58 49154 > 9) Payload (size=50)
r 2.08251 /NodeList/0/DeviceList/3/$ns3::PointToPointNetDevice/MacRx ns3::PppHeader (Point-to-Point Protocol: IP (0x0021)) ns3::Ipv4Header (tos 0x0 DSCP Default ECN Not-ECT ttl 64 id 1 protocol 17 offset (bytes) 0 flags [none] length: 78 10.1.3.2 > 10.1.3.1) ns3::UdpHeader (length: 58 49153 > 10) Payload (size=50)
r 2.08334 /NodeList/2/DeviceList/2/$ns3::PointToPointNetDevice/MacRx ns3::PppHeader (Point-to-Point Protocol: IP (0x0021)) ns3::Ipv4Header (tos 0x0 DSCP Default ECN Not-ECT ttl 64 id 3 protocol 17 offset (bytes) 0 flags [none] length: 78 10.1.3.1 > 10.1.3.2) ns3::UdpHeader (length: 58 49154 > 9) Payload (size=50)
+ 2.08334 /NodeList/2/DeviceList/2/$ns3::PointToPointNetDevice/TxQueue/Enqueue ns3::PppHeader (Point-to-Point Protocol: IP (0x0021)) ns3::Ipv4Header (tos 0x0 DSCP Default ECN Not-ECT ttl 64 id 4 protocol 17 offset (bytes) 0 flags [none] length: 78 10.1.3.2 > 10.1.3.1) ns3::UdpHeader (length: 58 49153 > 10) Payload (size=50)
- 2.08811 /NodeList/2/DeviceList/2/$ns3::PointToPointNetDevice/TxQueue/Dequeue ns3::PppHeader (Point-to-Point Protocol: IP (0x0021)) ns3::Ipv4Header (tos 0x0 DSCP Default ECN Not-ECT ttl 64 id 4 protocol 17 offset (bytes) 0 flags [none] length: 78 10.1.3.2 > 10.1.3.1) ns3::UdpHeader (length: 58 49153 > 10) Payload (size=50)
- 2.08894 /NodeList/0/DeviceList/3/$ns3::PointToPointNetDevice/TxQueue/Dequeue ns3::PppHeader (Point-to-Point Protocol: IP (0x0021)) ns3::Ipv4Header (tos 0x0 DSCP Default ECN Not-ECT ttl 64 id 6 protocol 17 offset (bytes) 0 flags [none] length: 78 10.1.3.1 > 10.1.3.2) ns3::UdpHeader (length: 58 49154 > 9) Payload (size=50)
r 2.09531 /NodeList/0/DeviceList/3/$ns3::PointToPointNetDevice/MacRx ns3::PppHeader (Point-to-Point Protocol: IP (0x0021)) ns3::Ipv4Header (tos 0x0 DSCP Default ECN Not-ECT ttl 64 id 2 protocol 17 offset (bytes) 0 flags [none] length: 78 10.1.3.2 > 10.1.3.1) ns3::UdpHeader (length: 58 49153 > 10) Payload (size=50)
r 2.09614 /NodeList/2/DeviceList/2/$ns3::PointToPointNetDevice/MacRx ns3::PppHeader (Point-to-Point Protocol: IP (0x0021)) ns3::Ipv4Header (tos 0x0 DSCP Default ECN Not-ECT ttl 64 id 4 protocol 17 offset (bytes) 0 flags [none] length: 78 10.1.3.1 > 10.1.3.2) ns3::UdpHeader (length: 58 49154 > 9) Payload (size=50)
+ 2.09614 /NodeList/2/DeviceList/2/$ns3::PointToPointNetDevice/TxQueue/Enqueue ns3::PppHeader (Point-to-Point Protocol: IP (0x0021)) ns3::Ipv4Header (tos 0x0 DSCP Default ECN Not-ECT ttl 64 id 5 protocol 17 offset (bytes) 0 flags [none] length: 78 10.1.3.2 > 10.1.3.1) ns3::UdpHeader (length: 58 49153 > 10) Payload (size=50)
+ 2.10054 /NodeList/0/DeviceList/3/$ns3::PointToPointNetDevice/TxQueue/Enqueue ns3::PppHeader (Point-to-Point Protocol: IP (0x0021)) ns3::Ipv4Header (tos 0x0 DSCP Default ECN Not-ECT ttl 64 id 7 protocol 17 offset (bytes) 0 flags [none] length: 78 10.1.3.1 > 10.1.3.2) ns3::UdpHeader (length: 58 49154 > 9) Payload (size=50)
+ 2.10085 /NodeList/0/DeviceList/3/$ns3::PointToPointNetDevice/TxQueue/Enqueue ns3::PppHeader (Point-to-Point Protocol: IP (0x0021)) ns3::Ipv4Header (tos 0x0 DSCP Default ECN Not-ECT ttl 64 id 8 protocol 17 offset (bytes) 0 flags [none] length: 78 10.1.3.1 > 10.1.3.2) ns3::UdpHeader (length: 58 49154 > 9) Payload (size=50)
- 2.10091 /NodeList/2/DeviceList/2/$ns3::PointToPointNetDevice/TxQueue/Dequeue ns3::PppHeader (Point-to-Point Protocol: IP (0x0021)) ns3::Ipv4Header (tos 0x0 DSCP Default ECN Not-ECT ttl 64 id 5 protocol 17 offset (bytes) 0 flags [none] length: 78 10.1.3.2 > 10.1.3.1) ns3::UdpHeader (length: 58 49153 > 10) Payload (size=50)
+ 2.10124 /NodeList/0/DeviceList/3/$ns3::PointToPointNetDevice/TxQueue/Enqueue ns3::PppHeader (Point-to-Point Protocol: IP (0x0021)) ns3::Ipv4Header (tos 0x0 DSCP Default ECN Not-ECT ttl 64 id 9 protocol 17 offset (bytes) 0 flags [none] length: 78 10.1.3.1 > 10.1.3.2) ns3::UdpHeader (length: 58 49154 > 9) Payload (size=50)
+ 2.10154 /NodeList/0/DeviceList/3/$ns3::PointToPointNetDevice/TxQueue/Enqueue ns3::PppHeader (Point-to-Point Protocol: IP (0x0021)) ns3::Ipv4Header (tos 0x0 DSCP Default ECN Not-ECT ttl 64 id 10 protocol 17 offset (bytes) 0 flags [none] length: 78 10.1.3.1 > 10.1.3.2) ns3::UdpHeader (length: 58 49154 > 9) Payload (size=50)
- 2.10174 /NodeList/0/DeviceList/3/$ns3::PointToPointNetDevice/TxQueue/Dequeue ns3::PppHeader (Point-to-Point Protocol: IP (0x0021)) ns3::Ipv4Header (tos 0x0 DSCP Default ECN Not-ECT ttl 64 id 7 protocol 17 offset (bytes) 0 flags [none] length: 78 10.1.3.1 > 10.1.3.2) ns3::UdpHeader (length: 58 49154 > 9) Payload (size=50)
r 2.10811 /NodeList/0/DeviceList/3/$ns3::PointToPointNetDevice/MacRx ns3::PppHeader (Point-to-Point Protocol: IP (0x0021)) ns3::Ipv4Header (tos 0x0 DSCP Default ECN Not-ECT ttl 64 id 3 protocol 17 offset (bytes) 0 flags [none] length: 78 10.1.3.2 > 10.1.3.1) ns3::UdpHeader (length: 58 49153 > 10) Payload (size=50)
r 2.10894 /NodeList/2/DeviceList/2/$ns3::PointToPointNetDevice/MacRx ns3::PppHeader (Point-to-Point Protocol: IP (0x0021)) ns3::Ipv4Header (tos 0x0 DSCP Default ECN Not-ECT ttl 64 id 5 protocol 17 offset (bytes) 0 flags [none] length: 78 10.1.3.1 > 10.1.3.2) ns3::UdpHeader (length: 58 49154 > 9) Payload (size=50)
+ 2.10894 /NodeList/2/DeviceList/2/$ns3::PointToPointNetDevice/TxQueue/Enqueue ns3::PppHeader (Point-to-Point Protocol: IP (0x0021)) ns3::Ipv4Header (tos 0x0 DSCP Default ECN Not-ECT ttl 64 id 6 protocol 17 offset (bytes) 0 flags [none] length: 78 10.1.3.2 > 10.1.3.1) ns3::UdpHeader (length: 58 49153 > 10) Payload (size=50)
- 2.11371 /NodeList/2/DeviceList/2/$ns3::PointToPointNetDevice/TxQueue/Dequeue ns3::PppHeader (Point-to-Point Protocol: IP (0x0021)) ns3::Ipv4Header (tos 0x0 DSCP Default ECN Not-ECT ttl 64 id 6 protocol 17 offset (bytes) 0 flags [none] length: 78 10.1.3.2 > 10.1.3.1) ns3::UdpHeader (length: 58 49153 > 10) Payload (size=50)
- 2.11454 /NodeList/0/DeviceList/3/$ns3::PointToPointNetDevice/TxQueue/Dequeue ns3::PppHeader (Point-to-Point Protocol: IP (0x0021)) ns3::Ipv4Header (tos 0x0 DSCP Default ECN Not-ECT ttl 64 id 8 protocol 17 offset (bytes) 0 flags [none] length: 78 10.1.3.1 > 10.1.3.2) ns3::UdpHeader (length: 58 49154 > 9) Payload (size=50)
r 2.12091 /NodeList/0/DeviceList/3/$ns3::PointToPointNetDevice/MacRx ns3::PppHeader (Point-to-Point Protocol: IP (0x0021)) ns3::Ipv4Header (tos 0x0 DSCP Default ECN Not-ECT ttl 64 id 4 protocol 17 offset (bytes) 0 flags [none] length: 78 10.1.3.2 > 10.1.3.1) ns3::UdpHeader (length: 58 49153 > 10) Payload (size=50)
r 2.12174 /NodeList/2/DeviceList/2/$ns3::PointToPointNetDevice/MacRx ns3::PppHeader (Point-to-Point Protocol: IP (0x0021)) ns3::Ipv4Header (tos 0x0 DSCP Default ECN Not-ECT ttl 64 id 6 protocol 17 offset (bytes) 0 flags [none] length: 78 10.1.3.1 > 10.1.3.2) ns3::UdpHeader (length: 58 49154 > 9) Payload (size=50)
+ 2.12174 /NodeList/2/DeviceList/2/$ns3::PointToPointNetDevice/TxQueue/Enqueue ns3::PppHeader (Point-to-Point Protocol: IP (0x0021)) ns3::Ipv4Header (tos 0x0 DSCP Default ECN Not-ECT ttl 64 id 7 protocol 17 offset (bytes) 0 flags [none] length: 78 10.1.3.2 > 10.1.3.1) ns3::UdpHeader (length: 58 49153 > 10) Payload (size=50)
- 2.12651 /NodeList/2/DeviceList/2/$ns3::PointToPointNetDevice/TxQueue/Dequeue ns3::PppHeader (Point-to-Point Protocol: IP (0x0021)) ns3::Ipv4Header (tos 0x0 DSCP Default ECN Not-ECT ttl 64 id 7 protocol 17 offset (bytes) 0 flags [none] length: 78 10.1.3.2 > 10.1.3.1) ns3::UdpHeader (length: 58 49153 > 10) Payload (size=50)
- 2.12734 /NodeList/0/DeviceList/3/$ns3::PointToPointNetDevice/TxQueue/Dequeue ns3::PppHeader (Point-to-Point Protocol: IP (0x0021)) ns3::Ipv4Header (tos 0x0 DSCP Default ECN Not-ECT ttl 64 id 9 protocol 17 offset (bytes) 0 flags [none] length: 78 10.1.3.1 > 10.1.3.2) ns3::UdpHeader (length: 58 49154 > 9) Payload (size=50)
r 2.13371 /NodeList/0/DeviceList/3/$ns3::PointToPointNetDevice/MacRx ns3::PppHeader (Point-to-Point Protocol: IP (0x0021)) ns3::Ipv4Header (tos 0x0 DSCP Default ECN Not-ECT ttl 64 id 5 protocol 17 offset (bytes) 0 flags [none] length: 78 10.1.3.2 > 10.1.3.1) ns3::UdpHeader (length: 58 49153 > 10) Payload (size=50)
r 2.13454 /NodeList/2/DeviceList/2/$ns3::PointToPointNetDevice/MacRx ns3::PppHeader (Point-to-Point Protocol: IP (0x0021)) ns3::Ipv4Header (tos 0x0 DSCP Default ECN Not-ECT ttl 64 id 7 protocol 17 offset (bytes) 0 flags [none] length: 78 10.1.3.1 > 10.1.3.2) ns3::UdpHeader (length: 58 49154 > 9) Payload (size=50)
+ 2.13454 /NodeList/2/DeviceList/2/$ns3::PointToPointNetDevice/TxQueue/Enqueue ns3::PppHeader (Point-to-Point Protocol: IP (0x0021)) ns3::Ipv4Header (tos 0x0 DSCP Default ECN Not-ECT ttl 64 id 8 protocol 17 offset (bytes) 0 flags [none] length: 78 10.1.3.2 > 10.1.3.1) ns3::UdpHeader (length: 58 49153 > 10) Payload (size=50)
- 2.13931 /NodeList/2/DeviceList/2/$ns3::PointToPointNetDevice/TxQueue/Dequeue ns3::PppHeader (Point-to-Point Protocol: IP (0x0021)) ns3::Ipv4Header (tos 0x0 DSCP Default ECN Not-ECT ttl 64 id 8 protocol 17 offset (bytes) 0 flags [none] length: 78 10.1.3.2 > 10.1.3.1) ns3::UdpHeader (length: 58 49153 > 10) Payload (size=50)
- 2.14014 /NodeList/0/DeviceList/3/$ns3::PointToPointNetDevice/TxQueue/Dequeue ns3::PppHeader (Point-to-Point Protocol: IP (0x0021)) ns3::Ipv4Header (tos 0x0 DSCP Default ECN Not-ECT ttl 64 id 10 protocol 17 offset (bytes) 0 flags [none] length: 78 10.1.3.1 > 10.1.3.2) ns3::UdpHeader (length: 58 49154 > 9) Payload (size=50)
r 2.14651 /NodeList/0/DeviceList/3/$ns3::PointToPointNetDevice/MacRx ns3::PppHeader (Point-to-Point Protocol: IP (0x0021)) ns3::Ipv4Header (tos 0x0 DSCP Default ECN Not-ECT ttl 64 id 6 protocol 17 offset (bytes) 0 flags [none] length: 78 10.1.3.2 > 10.1.3.1) ns3::UdpHeader (length: 58 49153 > 10) Payload (size=50)
r 2.14734 /NodeList/2/DeviceList/2/$ns3::PointToPointNetDevice/MacRx ns3::PppHeader (Point-to-Point Protocol: IP (0x0021)) ns3::Ipv4Header (tos 0x0 DSCP Default ECN Not-ECT ttl 64 id 8 protocol 17 offset (bytes) 0 flags [none] length: 78 10.1.3.1 > 10.1.3.2) ns3::UdpHeader (length: 58 49154 > 9) Payload (size=50)
+ 2.14734 /NodeList/2/DeviceList/2/$ns3::PointToPointNetDevice/TxQueue/Enqueue ns3::PppHeader (Point-to-Point Protocol: IP (0x0021)) ns3::Ipv4Header (tos 0x0 DSCP Default ECN Not-ECT ttl 64 id 9 protocol 17 offset (bytes) 0 flags [none] length: 78 10.1.3.2 > 10.1.3.1) ns3::UdpHeader (length: 58 49153 > 10) Payload (size=50)
+ 2.15066 /NodeList/0/DeviceList/3/$ns3::PointToPointNetDevice/TxQueue/Enqueue ns3::PppHeader (Point-to-Point Protocol: IP (0x0021)) ns3::Ipv4Header (tos 0x0 DSCP Default ECN Not-ECT ttl 64 id 11 protocol 17 offset (bytes) 0 flags [none] length: 78 10.1.3.1 > 10.1.3.2) ns3::UdpHeader (length: 58 49154 > 9) Payload (size=50)
+ 2.15095 /NodeList/0/DeviceList/3/$ns3::PointToPointNetDevice/TxQueue/Enqueue ns3::PppHeader (Point-to-Point Protocol: IP (0x0021)) ns3::Ipv4Header (tos 0x0 DSCP Default ECN Not-ECT ttl 64 id 12 protocol 17 offset (bytes) 0 flags [none] length: 78 10.1.3.1 > 10.1.3.2) ns3::UdpHeader (length: 58 49154 > 9) Payload (size=50)
+ 2.15123 /NodeList/0/DeviceList/3/$ns3::PointToPointNetDevice/TxQueue/Enqueue ns3::PppHeader (Point-to-Point Protocol: IP (0x0021)) ns3::Ipv4Header (tos 0x0 DSCP Default ECN Not-ECT ttl 64 id 13 protocol 17 offset (bytes) 0 flags [none] length: 78 10.1.3.1 > 10.1.3.2) ns3::UdpHeader (length: 58 49154 > 9) Payload (size=50)
+ 2.15151 /NodeList/0/DeviceList/3/$ns3::PointToPointNetDevice/TxQueue/Enqueue ns3::PppHeader (Point-to-Point Protocol: IP (0x0021)) ns3::Ipv4Header (tos 0x0 DSCP Default ECN Not-ECT ttl 64 id 14 protocol 17 offset (bytes) 0 flags [none] length: 78 10.1.3.1 > 10.1.3.2) ns3::UdpHeader (length: 58 49154 > 9) Payload (size=50)
- 2.15211 /NodeList/2/DeviceList/2/$ns3::PointToPointNetDevice/TxQueue/Dequeue ns3::PppHeader (Point-to-Point Protocol: IP (0x0021)) ns3::Ipv4Header (tos 0x0 DSCP Default ECN Not-ECT ttl 64 id 9 protocol 17 offset (bytes) 0 flags [none] length: 78 10.1.3.2 > 10.1.3.1) ns3::UdpHeader (length: 58 49153 > 10) Payload (size=50)
- 2.15294 /NodeList/0/DeviceList/3/$ns3::PointToPointNetDevice/TxQueue/Dequeue ns3::PppHeader (Point-to-Point Protocol: IP (0x0021)) ns3::Ipv4Header (tos 0x0 DSCP Default ECN Not-ECT ttl 64 id 11 protocol 17 offset (bytes) 0 flags [none] length: 78 10.1.3.1 > 10.1.3.2) ns3::UdpHeader (length: 58 49154 > 9) Payload (size=50)
r 2.15931 /NodeList/0/DeviceList/3/$ns3::PointToPointNetDevice/MacRx ns3::PppHeader (Point-to-Point Protocol: IP (0x0021)) ns3::Ipv4Header (tos 0x0 DSCP Default ECN Not-ECT ttl 64 id 7 protocol 17 offset (bytes) 0 flags [none] length: 78 10.1.3.2 > 10.1.3.1) ns3::UdpHeader (length: 58 49153 > 10) Payload (size=50)
r 2.16014 /NodeList/2/DeviceList/2/$ns3::PointToPointNetDevice/MacRx ns3::PppHeader (Point-to-Point Protocol: IP (0x0021)) ns3::Ipv4Header (tos 0x0 DSCP Default ECN Not-ECT ttl 64 id 9 protocol 17 offset (bytes) 0 flags [none] length: 78 10.1.3.1 > 10.1.3.2) ns3::UdpHeader (length: 58 49154 > 9) Payload (size=50)
+ 2.16014 /NodeList/2/DeviceList/2/$ns3::PointToPointNetDevice/TxQueue/Enqueue ns3::PppHeader (Point-to-Point Protocol: IP (0x0021)) ns3::Ipv4Header (tos 0x0 DSCP Default ECN Not-ECT ttl 64 id 10 protocol 17 offset (bytes) 0 flags [none] length: 78 10.1.3.2 > 10.1.3.1) ns3::UdpHeader (length: 58 49153 > 10) Payload (size=50)
- 2.16491 /NodeList/2/DeviceList/2/$ns3::PointToPointNetDevice/TxQueue/Dequeue ns3::PppHeader (Point-to-Point Protocol: IP (0x0021)) ns3::Ipv4Header (tos 0x0 DSCP Default ECN Not-ECT ttl 64 id 10 protocol 17 offset (bytes) 0 flags [none] length: 78 10.1.3.2 > 10.1.3.1) ns3::UdpHeader (length: 58 49153 > 10) Payload (size=50)
- 2.16574 /NodeList/0/DeviceList/3/$ns3::PointToPointNetDevice/TxQueue/Dequeue ns3::PppHeader (Point-to-Point Protocol: IP (0x0021)) ns3::Ipv4Header (tos 0x0 DSCP Default ECN Not-ECT ttl 64 id 12 protocol 17 offset (bytes) 0 flags [none] length: 78 10.1.3.1 > 10.1.3.2) ns3::UdpHeader (length: 58 49154 > 9) Payload (size=50)
r 2.17211 /NodeList/0/DeviceList/3/$ns3::PointToPointNetDevice/MacRx ns3::PppHeader (Point-to-Point Protocol: IP (0x0021)) ns3::Ipv4Header (tos 0x0 DSCP Default ECN Not-ECT ttl 64 id 8 protocol 17 offset (bytes) 0 flags [none] length: 78 10.1.3.2 > 10.1.3.1) ns3::UdpHeader (length: 58 49153 > 10) Payload (size=50)
r 2.17294 /NodeList/2/DeviceList/2/$ns3::PointToPointNetDevice/MacRx ns3::PppHeader (Point-to-Point Protocol: IP (0x0021)) ns3::Ipv4Header (tos 0x0 DSCP Default ECN Not-ECT ttl 64 id 10 protocol 17 offset (bytes) 0 flags [none] length: 78 10.1.3.1 > 10.1.3.2) ns3::UdpHeader (length: 58 49154 > 9) Payload (size=50)
+ 2.17294 /NodeList/2/DeviceList/2/$ns3::PointToPointNetDevice/TxQueue/Enqueue ns3::PppHeader (Point-to-Point Protocol: IP (0x0021)) ns3::Ipv4Header (tos 0x0 DSCP Default ECN Not-ECT ttl 64 id 11 protocol 17 offset (bytes) 0 flags [none] length: 78 10.1.3.2 > 10.1.3.1) ns3::UdpHeader (length: 58 49153 > 10) Payload (size=50)
- 2.17771 /NodeList/2/DeviceList/2/$ns3::PointToPointNetDevice/TxQueue/Dequeue ns3::PppHeader (Point-to-Point Protocol: IP (0x0021)) ns3::Ipv4Header (tos 0x0 DSCP Default ECN Not-ECT ttl 64 id 11 protocol 17 offset (bytes) 0 flags [none] length: 78 10.1.3.2 > 10.1.3.1) ns3::UdpHeader (length: 58 49153 > 10) Payload (size=50)
- 2.17854 /NodeList/0/DeviceList/3/$ns3::PointToPointNetDevice/TxQueue/Dequeue ns3::PppHeader (Point-to-Point Protocol: IP (0x0021)) ns3::Ipv4Header (tos 0x0 DSCP Default ECN Not-ECT ttl 64 id 13 protocol 17 offset (bytes) 0 flags [none] length: 78 10.1.3.1 > 10.1.3.2) ns3::UdpHeader (length: 58 49154 > 9) Payload (size=50)
r 2.18491 /NodeList/0/DeviceList/3/$ns3::PointToPointNetDevice/MacRx ns3::PppHeader (Point-to-Point Protocol: IP (0x0021)) ns3::Ipv4Header (tos 0x0 DSCP Default ECN Not-ECT ttl 64 id 9 protocol 17 offset (bytes) 0 flags [none] length: 78 10.1.3.2 > 10.1.3.1) ns3::UdpHeader (length: 58 49153 > 10) Payload (size=50)
r 2.18574 /NodeList/2/DeviceList/2/$ns3::PointToPointNetDevice/MacRx ns3::PppHeader (Point-to-Point Protocol: IP (0x0021)) ns3::Ipv4Header (tos 0x0 DSCP Default ECN Not-ECT ttl 64 id 11 protocol 17 offset (bytes) 0 flags [none] length: 78 10.1.3.1 > 10.1.3.2) ns3::UdpHeader (length: 58 49154 > 9) Payload (size=50)
+ 2.18574 /NodeList/2/DeviceList/2/$ns3::PointToPointNetDevice/TxQueue/Enqueue ns3::PppHeader (Point-to-Point Protocol: IP (0x0021)) ns3::Ipv4Header (tos 0x0 DSCP Default ECN Not-ECT ttl 64 id 12 protocol 17 offset (bytes) 0 flags [none] length: 78 10.1.3.2 > 10.1.3.1) ns3::UdpHeader (length: 58 49153 > 10) Payload (size=50)
- 2.19051 /NodeList/2/DeviceList/2/$ns3::PointToPointNetDevice/TxQueue/Dequeue ns3::PppHeader (Point-to-Point Protocol: IP (0x0021)) ns3::Ipv4Header (tos 0x0 DSCP Default ECN Not-ECT ttl 64 id 12 protocol 17 offset (bytes) 0 flags [none] length: 78 10.1.3.2 > 10.1.3.1) ns3::UdpHeader (length: 58 49153 > 10) Payload (size=50)
- 2.19134 /NodeList/0/DeviceList/3/$ns3::PointToPointNetDevice/TxQueue/Dequeue ns3::PppHeader (Point-to-Point Protocol: IP (0x0021)) ns3::Ipv4Header (tos 0x0 DSCP Default ECN Not-ECT ttl 64 id 14 protocol 17 offset (bytes) 0 flags [none] length: 78 10.1.3.1 > 10.1.3.2) ns3::UdpHeader (length: 58 49154 > 9) Payload (size=50)
r 2.19771 /NodeList/0/DeviceList/3/$ns3::PointToPointNetDevice/MacRx ns3::PppHeader (Point-to-Point Protocol: IP (0x0021)) ns3::Ipv4Header (tos 0x0 DSCP Default ECN Not-ECT ttl 64 id 10 protocol 17 offset (bytes) 0 flags [none] length: 78 10.1.3.2 > 10.1.3.1) ns3::UdpHeader (length: 58 49153 > 10) Payload (size=50)
r 2.19854 /NodeList/2/DeviceList/2/$ns3::PointToPointNetDevice/MacRx ns3::PppHeader (Point-to-Point Protocol: IP (0x0021)) ns3::Ipv4Header (tos 0x0 DSCP Default ECN Not-ECT ttl 64 id 12 protocol 17 offset (bytes) 0 flags [none] length: 78 10.1.3.1 > 10.1.3.2) ns3::UdpHeader (length: 58 49154 > 9) Payload (size=50)
+ 2.19854 /NodeList/2/DeviceList/2/$ns3::PointToPointNetDevice/TxQueue/Enqueue ns3::PppHeader (Point-to-Point Protocol: IP (0x0021)) ns3::Ipv4Header (tos 0x0 DSCP Default ECN Not-ECT ttl 64 id 13 protocol 17 offset (bytes) 0 flags [none] length: 78 10.1.3.2 > 10.1.3.1) ns3::UdpHeader (length: 58 49153 > 10) Payload (size=50)
+ 2.20052 /NodeList/0/DeviceList/3/$ns3::PointToPointNetDevice/TxQueue/Enqueue ns3::PppHeader (Point-to-Point Protocol: IP (0x0021)) ns3::Ipv4Header (tos 0x0 DSCP Default ECN Not-ECT ttl 64 id 15 protocol 17 offset (bytes) 0 flags [none] length: 78 10.1.3.1 > 10.1.3.2) ns3::UdpHeader (length: 58 49154 > 9) Payload (size=50)
+ 2.20081 /NodeList/0/DeviceList/3/$ns3::PointToPointNetDevice/TxQueue/Enqueue ns3::PppHeader (Point-to-Point Protocol: IP (0x0021)) ns3::Ipv4Header (tos 0x0 DSCP Default ECN Not-ECT ttl 64 id 16 protocol 17 offset (bytes) 0 flags [none] length: 78 10.1.3.1 > 10.1.3.2) ns3::UdpHeader (length: 58 49154 > 9) Payload (size=50)
+ 2.2011 /NodeList/0/DeviceList/3/$ns3::PointToPointNetDevice/TxQueue/Enqueue ns3::PppHeader (Point-to-Point Protocol: IP (0x0021)) ns3::Ipv4Header (tos 0x0 DSCP Default ECN Not-ECT ttl 64 id 17 protocol 17 offset (bytes) 0 flags [none] length: 78 10.1.3.1 > 10.1.3.2) ns3::UdpHeader (length: 58 49154 > 9) Payload (size=50)
+ 2.20142 /NodeList/0/DeviceList/3/$ns3::PointToPointNetDevice/TxQueue/Enqueue ns3::PppHeader (Point-to-Point Protocol: IP (0x0021)) ns3::Ipv4Header (tos 0x0 DSCP Default ECN Not-ECT ttl 64 id 18 protocol 17 offset (bytes) 0 flags [none] length: 78 10.1.3.1 > 10.1.3.2) ns3::UdpHeader (length: 58 49154 > 9) Payload (size=50)
- 2.20331 /NodeList/2/DeviceList/2/$ns3::PointToPointNetDevice/TxQueue/Dequeue ns3::PppHeader (Point-to-Point Protocol: IP (0x0021)) ns3::Ipv4Header (tos 0x0 DSCP Default ECN Not-ECT ttl 64 id 13 protocol 17 offset (bytes) 0 flags [none] length: 78 10.1.3.2 > 10.1.3.1) ns3::UdpHeader (length: 58 49153 > 10) Payload (size=50)